# vtk DataFile Version 5.1
vtk output
ASCII
DATASET STRUCTURED_GRID
DIMENSIONS 21 21 21
POINTS 9261 double
-135 -115 0 -121.5 -115 0 -108 -115 0 
-94.5 -115 0 -81 -115 0 -67.5 -115 0 
-54 -115 0 -40.5 -115 0 -27 -115 0 
-13.5 -115 0 0 -115 0 13.5 -115 0 
27 -115 0 40.5 -115 0 54 -115 0 
67.5 -115 0 81 -115 0 94.5 -115 0 
108 -115 0 121.5 -115 0 135 -115 0 
-135 -103.5 0 -121.5 -103.5 0 -108 -103.5 0 
-94.5 -103.5 0 -81 -103.5 0 -67.5 -103.5 0 
-54 -103.5 0 -40.5 -103.5 0 -27 -103.5 0 
-13.5 -103.5 0 0 -103.5 0 13.5 -103.5 0 
27 -103.5 0 40.5 -103.5 0 54 -103.5 0 
67.5 -103.5 0 81 -103.5 0 94.5 -103.5 0 
108 -103.5 0 121.5 -103.5 0 135 -103.5 0 
-135 -92 0 -121.5 -92 0 -108 -92 0 
-94.5 -92 0 -81 -92 0 -67.5 -92 0 
-54 -92 0 -40.5 -92 0 -27 -92 0 
-13.5 -92 0 0 -92 0 13.5 -92 0 
27 -92 0 40.5 -92 0 54 -92 0 
67.5 -92 0 81 -92 0 94.5 -92 0 
108 -92 0 121.5 -92 0 135 -92 0 
-135 -80.5 0 -121.5 -80.5 0 -108 -80.5 0 
-94.5 -80.5 0 -81 -80.5 0 -67.5 -80.5 0 
-54 -80.5 0 -40.5 -80.5 0 -27 -80.5 0 
-13.5 -80.5 0 0 -80.5 0 13.5 -80.5 0 
27 -80.5 0 40.5 -80.5 0 54 -80.5 0 
67.5 -80.5 0 81 -80.5 0 94.5 -80.5 0 
108 -80.5 0 121.5 -80.5 0 135 -80.5 0 
-135 -69 0 -121.5 -69 0 -108 -69 0 
-94.5 -69 0 -81 -69 0 -67.5 -69 0 
-54 -69 0 -40.5 -69 0 -27 -69 0 
-13.5 -69 0 0 -69 0 13.5 -69 0 
27 -69 0 40.5 -69 0 54 -69 0 
67.5 -69 0 81 -69 0 94.5 -69 0 
108 -69 0 121.5 -69 0 135 -69 0 
-135 -57.5 0 -121.5 -57.5 0 -108 -57.5 0 
-94.5 -57.5 0 -81 -57.5 0 -67.5 -57.5 0 
-54 -57.5 0 -40.5 -57.5 0 -27 -57.5 0 
-13.5 -57.5 0 0 -57.5 0 13.5 -57.5 0 
27 -57.5 0 40.5 -57.5 0 54 -57.5 0 
67.5 -57.5 0 81 -57.5 0 94.5 -57.5 0 
108 -57.5 0 121.5 -57.5 0 135 -57.5 0 
-135 -46 0 -121.5 -46 0 -108 -46 0 
-94.5 -46 0 -81 -46 0 -67.5 -46 0 
-54 -46 0 -40.5 -46 0 -27 -46 0 
-13.5 -46 0 0 -46 0 13.5 -46 0 
27 -46 0 40.5 -46 0 54 -46 0 
67.5 -46 0 81 -46 0 94.5 -46 0 
108 -46 0 121.5 -46 0 135 -46 0 
-135 -34.5 0 -121.5 -34.5 0 -108 -34.5 0 
-94.5 -34.5 0 -81 -34.5 0 -67.5 -34.5 0 
-54 -34.5 0 -40.5 -34.5 0 -27 -34.5 0 
-13.5 -34.5 0 0 -34.5 0 13.5 -34.5 0 
27 -34.5 0 40.5 -34.5 0 54 -34.5 0 
67.5 -34.5 0 81 -34.5 0 94.5 -34.5 0 
108 -34.5 0 121.5 -34.5 0 135 -34.5 0 
-135 -23 0 -121.5 -23 0 -108 -23 0 
-94.5 -23 0 -81 -23 0 -67.5 -23 0 
-54 -23 0 -40.5 -23 0 -27 -23 0 
-13.5 -23 0 0 -23 0 13.5 -23 0 
27 -23 0 40.5 -23 0 54 -23 0 
67.5 -23 0 81 -23 0 94.5 -23 0 
108 -23 0 121.5 -23 0 135 -23 0 
-135 -11.5 0 -121.5 -11.5 0 -108 -11.5 0 
-94.5 -11.5 0 -81 -11.5 0 -67.5 -11.5 0 
-54 -11.5 0 -40.5 -11.5 0 -27 -11.5 0 
-13.5 -11.5 0 0 -11.5 0 13.5 -11.5 0 
27 -11.5 0 40.5 -11.5 0 54 -11.5 0 
67.5 -11.5 0 81 -11.5 0 94.5 -11.5 0 
108 -11.5 0 121.5 -11.5 0 135 -11.5 0 
-135 0 0 -121.5 0 0 -108 0 0 
-94.5 0 0 -81 0 0 -67.5 0 0 
-54 0 0 -40.5 0 0 -27 0 0 
-13.5 0 0 0 0 0 13.5 0 0 
27 0 0 40.5 0 0 54 0 0 
67.5 0 0 81 0 0 94.5 0 0 
108 0 0 121.5 0 0 135 0 0 
-135 11.5 0 -121.5 11.5 0 -108 11.5 0 
-94.5 11.5 0 -81 11.5 0 -67.5 11.5 0 
-54 11.5 0 -40.5 11.5 0 -27 11.5 0 
-13.5 11.5 0 0 11.5 0 13.5 11.5 0 
27 11.5 0 40.5 11.5 0 54 11.5 0 
67.5 11.5 0 81 11.5 0 94.5 11.5 0 
108 11.5 0 121.5 11.5 0 135 11.5 0 
-135 23 0 -121.5 23 0 -108 23 0 
-94.5 23 0 -81 23 0 -67.5 23 0 
-54 23 0 -40.5 23 0 -27 23 0 
-13.5 23 0 0 23 0 13.5 23 0 
27 23 0 40.5 23 0 54 23 0 
67.5 23 0 81 23 0 94.5 23 0 
108 23 0 121.5 23 0 135 23 0 
-135 34.5 0 -121.5 34.5 0 -108 34.5 0 
-94.5 34.5 0 -81 34.5 0 -67.5 34.5 0 
-54 34.5 0 -40.5 34.5 0 -27 34.5 0 
-13.5 34.5 0 0 34.5 0 13.5 34.5 0 
27 34.5 0 40.5 34.5 0 54 34.5 0 
67.5 34.5 0 81 34.5 0 94.5 34.5 0 
108 34.5 0 121.5 34.5 0 135 34.5 0 
-135 46 0 -121.5 46 0 -108 46 0 
-94.5 46 0 -81 46 0 -67.5 46 0 
-54 46 0 -40.5 46 0 -27 46 0 
-13.5 46 0 0 46 0 13.5 46 0 
27 46 0 40.5 46 0 54 46 0 
67.5 46 0 81 46 0 94.5 46 0 
108 46 0 121.5 46 0 135 46 0 
-135 57.5 0 -121.5 57.5 0 -108 57.5 0 
-94.5 57.5 0 -81 57.5 0 -67.5 57.5 0 
-54 57.5 0 -40.5 57.5 0 -27 57.5 0 
-13.5 57.5 0 0 57.5 0 13.5 57.5 0 
27 57.5 0 40.5 57.5 0 54 57.5 0 
67.5 57.5 0 81 57.5 0 94.5 57.5 0 
108 57.5 0 121.5 57.5 0 135 57.5 0 
-135 69 0 -121.5 69 0 -108 69 0 
-94.5 69 0 -81 69 0 -67.5 69 0 
-54 69 0 -40.5 69 0 -27 69 0 
-13.5 69 0 0 69 0 13.5 69 0 
27 69 0 40.5 69 0 54 69 0 
67.5 69 0 81 69 0 94.5 69 0 
108 69 0 121.5 69 0 135 69 0 
-135 80.5 0 -121.5 80.5 0 -108 80.5 0 
-94.5 80.5 0 -81 80.5 0 -67.5 80.5 0 
-54 80.5 0 -40.5 80.5 0 -27 80.5 0 
-13.5 80.5 0 0 80.5 0 13.5 80.5 0 
27 80.5 0 40.5 80.5 0 54 80.5 0 
67.5 80.5 0 81 80.5 0 94.5 80.5 0 
108 80.5 0 121.5 80.5 0 135 80.5 0 
-135 92 0 -121.5 92 0 -108 92 0 
-94.5 92 0 -81 92 0 -67.5 92 0 
-54 92 0 -40.5 92 0 -27 92 0 
-13.5 92 0 0 92 0 13.5 92 0 
27 92 0 40.5 92 0 54 92 0 
67.5 92 0 81 92 0 94.5 92 0 
108 92 0 121.5 92 0 135 92 0 
-135 103.5 0 -121.5 103.5 0 -108 103.5 0 
-94.5 103.5 0 -81 103.5 0 -67.5 103.5 0 
-54 103.5 0 -40.5 103.5 0 -27 103.5 0 
-13.5 103.5 0 0 103.5 0 13.5 103.5 0 
27 103.5 0 40.5 103.5 0 54 103.5 0 
67.5 103.5 0 81 103.5 0 94.5 103.5 0 
108 103.5 0 121.5 103.5 0 135 103.5 0 
-135 115 0 -121.5 115 0 -108 115 0 
-94.5 115 0 -81 115 0 -67.5 115 0 
-54 115 0 -40.5 115 0 -27 115 0 
-13.5 115 0 0 115 0 13.5 115 0 
27 115 0 40.5 115 0 54 115 0 
67.5 115 0 81 115 0 94.5 115 0 
108 115 0 121.5 115 0 135 115 0 
-135 -115 13 -121.5 -115 13 -108 -115 13 
-94.5 -115 13 -81 -115 13 -67.5 -115 13 
-54 -115 13 -40.5 -115 13 -27 -115 13 
-13.5 -115 13 0 -115 13 13.5 -115 13 
27 -115 13 40.5 -115 13 54 -115 13 
67.5 -115 13 81 -115 13 94.5 -115 13 
108 -115 13 121.5 -115 13 135 -115 13 
-135 -103.5 13 -121.5 -103.5 13 -108 -103.5 13 
-94.5 -103.5 13 -81 -103.5 13 -67.5 -103.5 13 
-54 -103.5 13 -40.5 -103.5 13 -27 -103.5 13 
-13.5 -103.5 13 0 -103.5 13 13.5 -103.5 13 
27 -103.5 13 40.5 -103.5 13 54 -103.5 13 
67.5 -103.5 13 81 -103.5 13 94.5 -103.5 13 
108 -103.5 13 121.5 -103.5 13 135 -103.5 13 
-135 -92 13 -121.5 -92 13 -108 -92 13 
-94.5 -92 13 -81 -92 13 -67.5 -92 13 
-54 -92 13 -40.5 -92 13 -27 -92 13 
-13.5 -92 13 0 -92 13 13.5 -92 13 
27 -92 13 40.5 -92 13 54 -92 13 
67.5 -92 13 81 -92 13 94.5 -92 13 
108 -92 13 121.5 -92 13 135 -92 13 
-135 -80.5 13 -121.5 -80.5 13 -108 -80.5 13 
-94.5 -80.5 13 -81 -80.5 13 -67.5 -80.5 13 
-54 -80.5 13 -40.5 -80.5 13 -27 -80.5 13 
-13.5 -80.5 13 0 -80.5 13 13.5 -80.5 13 
27 -80.5 13 40.5 -80.5 13 54 -80.5 13 
67.5 -80.5 13 81 -80.5 13 94.5 -80.5 13 
108 -80.5 13 121.5 -80.5 13 135 -80.5 13 
-135 -69 13 -121.5 -69 13 -108 -69 13 
-94.5 -69 13 -81 -69 13 -67.5 -69 13 
-54 -69 13 -40.5 -69 13 -27 -69 13 
-13.5 -69 13 0 -69 13 13.5 -69 13 
27 -69 13 40.5 -69 13 54 -69 13 
67.5 -69 13 81 -69 13 94.5 -69 13 
108 -69 13 121.5 -69 13 135 -69 13 
-135 -57.5 13 -121.5 -57.5 13 -108 -57.5 13 
-94.5 -57.5 13 -81 -57.5 13 -67.5 -57.5 13 
-54 -57.5 13 -40.5 -57.5 13 -27 -57.5 13 
-13.5 -57.5 13 0 -57.5 13 13.5 -57.5 13 
27 -57.5 13 40.5 -57.5 13 54 -57.5 13 
67.5 -57.5 13 81 -57.5 13 94.5 -57.5 13 
108 -57.5 13 121.5 -57.5 13 135 -57.5 13 
-135 -46 13 -121.5 -46 13 -108 -46 13 
-94.5 -46 13 -81 -46 13 -67.5 -46 13 
-54 -46 13 -40.5 -46 13 -27 -46 13 
-13.5 -46 13 0 -46 13 13.5 -46 13 
27 -46 13 40.5 -46 13 54 -46 13 
67.5 -46 13 81 -46 13 94.5 -46 13 
108 -46 13 121.5 -46 13 135 -46 13 
-135 -34.5 13 -121.5 -34.5 13 -108 -34.5 13 
-94.5 -34.5 13 -81 -34.5 13 -67.5 -34.5 13 
-54 -34.5 13 -40.5 -34.5 13 -27 -34.5 13 
-13.5 -34.5 13 0 -34.5 13 13.5 -34.5 13 
27 -34.5 13 40.5 -34.5 13 54 -34.5 13 
67.5 -34.5 13 81 -34.5 13 94.5 -34.5 13 
108 -34.5 13 121.5 -34.5 13 135 -34.5 13 
-135 -23 13 -121.5 -23 13 -108 -23 13 
-94.5 -23 13 -81 -23 13 -67.5 -23 13 
-54 -23 13 -40.5 -23 13 -27 -23 13 
-13.5 -23 13 0 -23 13 13.5 -23 13 
27 -23 13 40.5 -23 13 54 -23 13 
67.5 -23 13 81 -23 13 94.5 -23 13 
108 -23 13 121.5 -23 13 135 -23 13 
-135 -11.5 13 -121.5 -11.5 13 -108 -11.5 13 
-94.5 -11.5 13 -81 -11.5 13 -67.5 -11.5 13 
-54 -11.5 13 -40.5 -11.5 13 -27 -11.5 13 
-13.5 -11.5 13 0 -11.5 13 13.5 -11.5 13 
27 -11.5 13 40.5 -11.5 13 54 -11.5 13 
67.5 -11.5 13 81 -11.5 13 94.5 -11.5 13 
108 -11.5 13 121.5 -11.5 13 135 -11.5 13 
-135 0 13 -121.5 0 13 -108 0 13 
-94.5 0 13 -81 0 13 -67.5 0 13 
-54 0 13 -40.5 0 13 -27 0 13 
-13.5 0 13 0 0 13 13.5 0 13 
27 0 13 40.5 0 13 54 0 13 
67.5 0 13 81 0 13 94.5 0 13 
108 0 13 121.5 0 13 135 0 13 
-135 11.5 13 -121.5 11.5 13 -108 11.5 13 
-94.5 11.5 13 -81 11.5 13 -67.5 11.5 13 
-54 11.5 13 -40.5 11.5 13 -27 11.5 13 
-13.5 11.5 13 0 11.5 13 13.5 11.5 13 
27 11.5 13 40.5 11.5 13 54 11.5 13 
67.5 11.5 13 81 11.5 13 94.5 11.5 13 
108 11.5 13 121.5 11.5 13 135 11.5 13 
-135 23 13 -121.5 23 13 -108 23 13 
-94.5 23 13 -81 23 13 -67.5 23 13 
-54 23 13 -40.5 23 13 -27 23 13 
-13.5 23 13 0 23 13 13.5 23 13 
27 23 13 40.5 23 13 54 23 13 
67.5 23 13 81 23 13 94.5 23 13 
108 23 13 121.5 23 13 135 23 13 
-135 34.5 13 -121.5 34.5 13 -108 34.5 13 
-94.5 34.5 13 -81 34.5 13 -67.5 34.5 13 
-54 34.5 13 -40.5 34.5 13 -27 34.5 13 
-13.5 34.5 13 0 34.5 13 13.5 34.5 13 
27 34.5 13 40.5 34.5 13 54 34.5 13 
67.5 34.5 13 81 34.5 13 94.5 34.5 13 
108 34.5 13 121.5 34.5 13 135 34.5 13 
-135 46 13 -121.5 46 13 -108 46 13 
-94.5 46 13 -81 46 13 -67.5 46 13 
-54 46 13 -40.5 46 13 -27 46 13 
-13.5 46 13 0 46 13 13.5 46 13 
27 46 13 40.5 46 13 54 46 13 
67.5 46 13 81 46 13 94.5 46 13 
108 46 13 121.5 46 13 135 46 13 
-135 57.5 13 -121.5 57.5 13 -108 57.5 13 
-94.5 57.5 13 -81 57.5 13 -67.5 57.5 13 
-54 57.5 13 -40.5 57.5 13 -27 57.5 13 
-13.5 57.5 13 0 57.5 13 13.5 57.5 13 
27 57.5 13 40.5 57.5 13 54 57.5 13 
67.5 57.5 13 81 57.5 13 94.5 57.5 13 
108 57.5 13 121.5 57.5 13 135 57.5 13 
-135 69 13 -121.5 69 13 -108 69 13 
-94.5 69 13 -81 69 13 -67.5 69 13 
-54 69 13 -40.5 69 13 -27 69 13 
-13.5 69 13 0 69 13 13.5 69 13 
27 69 13 40.5 69 13 54 69 13 
67.5 69 13 81 69 13 94.5 69 13 
108 69 13 121.5 69 13 135 69 13 
-135 80.5 13 -121.5 80.5 13 -108 80.5 13 
-94.5 80.5 13 -81 80.5 13 -67.5 80.5 13 
-54 80.5 13 -40.5 80.5 13 -27 80.5 13 
-13.5 80.5 13 0 80.5 13 13.5 80.5 13 
27 80.5 13 40.5 80.5 13 54 80.5 13 
67.5 80.5 13 81 80.5 13 94.5 80.5 13 
108 80.5 13 121.5 80.5 13 135 80.5 13 
[...]
CELL_DATA 8000
FIELD FieldData 4
flux_mean 1 8000 double
0 0 0 0 1.0052272982e-08 5.9317069822e-08 5.3290786505e-08 2.5110593203e-08 4.0034370397e-08 
6.9283650645e-08 7.3662699593e-08 6.8862577329e-08 2.0724075765e-08 2.7593192845e-08 3.9556466658e-08 3.230402327e-09 0 0 
0 0 0 0 0 0 4.5698946721e-08 5.7207846612e-08 3.7907304416e-08 
2.1814890778e-07 4.6667820392e-07 6.1529080545e-07 5.6982701135e-07 4.2899753765e-07 1.3658638502e-07 3.735802506e-08 4.778536671e-08 3.2013987556e-08 
0 0 0 0 0 0 0 6.7079553689e-09 6.2797227535e-08 
1.0275578212e-07 3.5243363151e-07 8.0590929666e-07 1.5595886245e-06 1.9213836641e-06 1.9499868887e-06 1.5330727182e-06 8.0277563787e-07 3.7018583994e-07 
9.4716474684e-08 2.8193670068e-08 6.7930777519e-09 0 0 0 0 0 0 
2.1915595861e-08 2.4131812709e-07 4.5403211109e-07 1.620906249e-06 2.6899152447e-06 3.0317832413e-06 3.1910240366e-06 3.6257579212e-06 2.882825521e-06 
2.1026084573e-06 1.4496930502e-06 3.7170273629e-07 1.2381958323e-07 1.4805327004e-08 0 0 0 0 
0 3.0988117612e-09 1.5052019436e-07 7.0295266278e-07 1.7913504366e-06 2.8173043845e-06 4.0085404769e-06 4.6221997063e-06 4.8767306192e-06 
5.4087413344e-06 4.3962325332e-06 3.6111178291e-06 2.7662871068e-06 1.5637976829e-06 5.6965585708e-07 7.2654460224e-08 4.0055727315e-09 0 
0 0 0 3.6859831784e-08 3.3351515379e-07 1.5687898809e-06 3.1116692003e-06 4.5372452234e-06 5.4115014673e-06 
6.2554609105e-06 7.2271613875e-06 7.4009682291e-06 6.0783548955e-06 4.9966381234e-06 3.89617354e-06 2.5396374806e-06 1.2885886366e-06 3.0692336497e-07 
4.4390425833e-08 0 0 0 2.8437842907e-09 1.0673244415e-07 9.382788542e-07 2.4030465543e-06 4.2238485281e-06 
5.9501699804e-06 6.8612541978e-06 7.5804106252e-06 8.0193489131e-06 8.422939385e-06 7.1338936201e-06 6.4739289942e-06 5.36784694e-06 3.9461516638e-06 
2.1436866216e-06 7.6693504395e-07 1.1505103167e-07 2.1402973787e-09 0 0 5.8222252661e-09 1.7766978249e-07 1.1500702551e-06 
3.021961569e-06 5.0067400719e-06 7.3346264608e-06 7.9188675762e-06 8.4721307172e-06 1.0294364945e-05 1.047522943e-05 8.2783829387e-06 7.723596293e-06 
7.1306186386e-06 4.6129173109e-06 2.9051932863e-06 1.3698234919e-06 2.1260528937e-07 2.1790413202e-08 0 7.9475441187e-09 3.9616521665e-08 
2.2342717596e-07 1.4987242564e-06 3.1644492457e-06 5.4576514465e-06 7.4606017062e-06 8.9088829863e-06 9.7773457291e-06 1.1262239183e-05 1.1178041305e-05 
9.6718305143e-06 8.7223115877e-06 7.6624014928e-06 5.6902117796e-06 2.9094575572e-06 1.1855333744e-06 1.4686998246e-07 3.5708069771e-08 5.0478820546e-09 
3.5738954817e-08 6.1125590656e-08 2.6683715917e-07 1.4606776596e-06 3.3384788413e-06 5.2073193134e-06 7.7025522411e-06 9.0557362065e-06 9.8299755971e-06 
1.129764464e-05 1.1690287001e-05 1.0181844976e-05 9.0749742166e-06 7.6147971934e-06 5.653079717e-06 3.0894835676e-06 1.3735145016e-06 2.5690690295e-07 
7.034827264e-08 1.908988267e-08 2.7420453782e-08 5.3592578655e-08 1.9418532172e-07 1.3105076336e-06 3.1050675186e-06 5.0386178366e-06 7.2810147179e-06 
9.0394646671e-06 1.0988859016e-05 1.1996639765e-05 1.1654670611e-05 1.0832033068e-05 9.9088630966e-06 7.9512612448e-06 5.6092785286e-06 3.3438992115e-06 
1.4094027806e-06 2.7022588601e-07 6.3220178658e-08 4.3182929335e-08 5.2093768937e-09 3.1322861103e-08 1.784178841e-07 1.3964010349e-06 3.3485651777e-06 
5.6044135464e-06 7.384301665e-06 9.0431047772e-06 1.0688996627e-05 1.0942145261e-05 1.0296632051e-05 1.059675336e-05 9.4218417931e-06 7.7684544181e-06 
6.0048585947e-06 3.6533361029e-06 1.3436038207e-06 1.9579198872e-07 5.398511592e-08 4.2413586895e-09 0 8.5181344518e-09 2.19478876e-07 
1.295373474e-06 2.9566286032e-06 4.9366762507e-06 7.0714504869e-06 8.3146237389e-06 9.4036196087e-06 9.7724109901e-06 8.6822389138e-06 8.0827250102e-06 
8.1756002076e-06 7.3686880627e-06 5.0409056257e-06 2.9706272405e-06 1.3702067494e-06 2.2367604548e-07 1.7046768947e-08 0 0 
6.234011896e-10 1.0317753746e-07 8.5215432846e-07 2.3193962422e-06 4.329511306e-06 5.9572353884e-06 7.2099092117e-06 7.6871436522e-06 8.4765378465e-06 
8.0616932484e-06 7.0269491053e-06 6.8935672483e-06 5.5501753204e-06 3.83274605e-06 2.3273071355e-06 8.7043735272e-07 8.2243322155e-08 1.1957580073e-10 
0 0 0 3.4621453564e-08 2.2771266036e-07 1.5406292523e-06 2.9956449323e-06 4.3747579169e-06 5.3111169824e-06 
6.1708407274e-06 7.1785777744e-06 7.1744026418e-06 6.4211589394e-06 5.7655898388e-06 3.9991732898e-06 2.8219597124e-06 1.3674582569e-06 2.8480876274e-07 
1.4783703481e-08 0 0 0 0 3.0763676749e-09 5.7841590531e-08 6.7044180416e-07 1.5229809043e-06 
2.7463675516e-06 3.9189565062e-06 4.715379064e-06 5.7954946125e-06 5.8672536428e-06 4.6731871115e-06 3.5444686345e-06 2.646871043e-06 1.7117168158e-06 
6.879437465e-07 8.609366712e-08 2.2349370516e-09 0 0 0 0 0 2.75817267e-08 
1.6207026505e-07 4.2611203767e-07 1.394585617e-06 2.4586278083e-06 3.2176382509e-06 3.8681341736e-06 3.8088966332e-06 3.1120854823e-06 2.3387185466e-06 
1.5988998065e-06 5.6140746078e-07 2.2146248999e-07 2.3227206099e-08 0 0 0 0 0 
0 3.4262440636e-09 6.4712214265e-08 6.4019485206e-08 3.7566620003e-07 8.5215219268e-07 1.6941264429e-06 1.972411359e-06 2.1141087566e-06 
1.6549071602e-06 8.1373078925e-07 4.5580824897e-07 1.0256624045e-07 5.2937976469e-08 4.3160165585e-09 0 0 0 
0 0 0 0 2.4375735946e-08 4.6886926582e-08 7.0644528934e-08 1.9398780282e-07 5.4597220128e-07 
6.5359832474e-07 5.6399538653e-07 4.9149065695e-07 1.6278874364e-07 3.7688117072e-08 6.1570450875e-08 3.6761968793e-08 0 0 
0 0 0 0 0 0 7.1780253928e-09 5.9195534951e-08 3.5965256163e-08 
2.2651305555e-08 7.975343732e-08 4.7736670431e-08 7.4065052702e-08 6.7945505485e-08 1.9893549465e-08 5.1298762668e-08 3.719951588e-08 8.8780235244e-09 
0 0 0 0 0 0 0 0 8.8997243942e-10 
9.667029333e-08 9.8651531161e-08 7.0840691219e-08 1.3364406125e-07 1.8968717903e-07 1.5840882276e-07 1.0809952417e-07 8.3944693047e-08 7.738205421e-08 
9.7644059577e-08 4.6181679481e-09 0 0 0 0 0 0 0 
0 6.0248618411e-08 1.0017500493e-07 1.4762064035e-07 4.0213305138e-07 1.2218392635e-06 1.4398899064e-06 1.5180888045e-06 1.2102869533e-06 
4.4892570068e-07 1.2578524453e-07 1.0163155223e-07 4.8340815201e-08 0 0 0 0 0 
0 0 5.3203284714e-09 8.8273997643e-08 2.7672509278e-07 1.0995147774e-06 2.17022709e-06 4.1335910335e-06 4.4457666258e-06 
5.0850994269e-06 3.7324423276e-06 2.0347044363e-06 9.6438882985e-07 2.0552086904e-07 7.2820547948e-08 4.7557268533e-09 0 0 
0 0 0 0 5.3081193049e-08 4.5028975605e-07 1.2095736496e-06 3.6362211387e-06 6.104452376e-06 
7.9909551878e-06 8.2340846767e-06 8.4225028856e-06 6.7640438233e-06 5.190993534e-06 3.4517485883e-06 1.1408090959e-06 4.4197676295e-07 4.9014757376e-08 
0 0 0 0 0 1.161579771e-08 2.5123291081e-07 1.8288321485e-06 4.1220945724e-06 
6.9538716544e-06 9.6074801136e-06 1.1440222626e-05 1.2552305783e-05 1.2141641077e-05 1.1090453302e-05 8.6864770256e-06 6.8792437385e-06 3.9725964321e-06 
1.5072575233e-06 1.7095036679e-07 6.0286635685e-09 0 0 0 0 5.9625513736e-08 6.7366838287e-07 
3.9718073272e-06 6.8617143389e-06 1.0239093866e-05 1.3744461714e-05 1.4765656649e-05 1.6618330452e-05 1.697535604e-05 1.5562031893e-05 1.301360851e-05 
9.4962230115e-06 6.7343366367e-06 3.4868732938e-06 5.6705667456e-07 7.0956320419e-08 0 0 0 5.0701103353e-09 
1.981519304e-07 1.9766312229e-06 5.7614881658e-06 9.4757672901e-06 1.3693658376e-05 1.6501373258e-05 1.7563060383e-05 2.0319961968e-05 2.0419255787e-05 
1.8445907037e-05 1.5822611694e-05 1.3546334379e-05 9.8436110381e-06 5.5806498438e-06 1.8929638109e-06 1.4988191621e-07 1.147618821e-09 0 
0 3.9730444849e-08 4.1914921799e-07 2.817210741e-06 7.2354218158e-06 1.1628460035e-05 1.7123198794e-05 1.9187106722e-05 2.1821090181e-05 
2.3815596003e-05 2.4238063064e-05 2.1376937926e-05 1.9091789292e-05 1.6818971839e-05 1.1196713846e-05 7.340051276e-06 3.3114139775e-06 4.3893807517e-07 
1.8517929965e-08 0 8.880949786e-09 1.0275709185e-07 5.1892440842e-07 3.2445542644e-06 7.7465460343e-06 1.2715754336e-05 1.7868332432e-05 
2.0341270249e-05 2.3987717158e-05 2.5120997035e-05 2.5608069839e-05 2.3513563708e-05 2.0552403982e-05 1.7461654789e-05 1.2660061926e-05 7.5133282203e-06 
3.6626023825e-06 4.4762505008e-07 8.0144264656e-08 8.0710529889e-09 4.5403621575e-08 1.2722136216e-07 4.9322166425e-07 3.471550609e-06 8.1647933609e-06 
1.3006798455e-05 1.781439506e-05 2.1504117207e-05 2.4669502936e-05 2.7087849267e-05 2.7957088211e-05 2.4700903071e-05 2.1279312929e-05 1.8262734961e-05 
1.3491922218e-05 8.1254612828e-06 3.6305978535e-06 4.8055308554e-07 8.1621652035e-08 5.9053884265e-08 3.8515104494e-08 1.1421429884e-07 4.9378863711e-07 
3.5347704113e-06 8.051719491e-06 1.2718142226e-05 1.7942632093e-05 2.2347962478e-05 2.6129857609e-05 2.8053950772e-05 2.8323880797e-05 2.6600145743e-05 
2.2825960312e-05 1.8010967555e-05 1.3174533498e-05 8.6279181433e-06 3.3889573567e-06 4.5668984244e-07 8.7289223263e-08 4.6841845661e-08 4.7661162219e-09 
7.6433563712e-08 4.4820779008e-07 3.2166866001e-06 7.966444945e-06 1.3212283066e-05 1.8255612705e-05 2.2304690819e-05 2.5104488888e-05 2.5681186373e-05 
2.5596292572e-05 2.5608481987e-05 2.2989191704e-05 1.8369306312e-05 1.3868329928e-05 8.2217146579e-06 3.4900559387e-06 4.6223735538e-07 1.0955936775e-07 
8.8143334245e-09 0 5.4931665194e-08 4.4563459737e-07 3.1827083379e-06 6.9788662784e-06 1.1780163766e-05 1.6987265056e-05 1.9571537979e-05 
2.183924991e-05 2.3294453779e-05 2.2845691405e-05 2.2343343902e-05 2.0689675826e-05 1.7918712879e-05 1.2164515335e-05 7.4470640181e-06 3.4741630353e-06 
5.3260142907e-07 3.2559057926e-08 0 0 5.5439263376e-09 2.2106895212e-07 1.9452455595e-06 5.4107411957e-06 9.4567754489e-06 
1.3676844327e-05 1.655497947e-05 1.863178826e-05 1.9601506197e-05 2.0177159608e-05 1.8271988906e-05 1.6264694501e-05 1.3725680116e-05 9.6061393425e-06 
5.7388126034e-06 1.957018689e-06 1.6845288108e-07 6.8043356774e-09 0 0 0 6.2904081331e-08 7.828626252e-07 
3.6213408974e-06 7.1232571057e-06 1.0624097202e-05 1.3228347844e-05 1.5686688384e-05 1.7973235905e-05 1.7666447747e-05 1.5430673572e-05 1.2440436202e-05 
9.898187851e-06 7.1321725809e-06 3.5562944532e-06 6.723792597e-07 4.0480771076e-08 0 0 0 0 
8.648240748e-09 1.8934220686e-07 1.5197272318e-06 4.166049114e-06 7.1350096679e-06 9.6348477034e-06 1.1797175301e-05 1.481630752e-05 1.3046230429e-05 
1.1058072885e-05 8.7794164389e-06 6.705328342e-06 4.0607878117e-06 1.7495355617e-06 1.8755797633e-07 5.1221141984e-09 0 0 
0 0 0 6.6457910347e-08 3.4565324684e-07 1.1547064135e-06 4.0302761176e-06 5.9921868294e-06 7.7832790218e-06 
9.1702353365e-06 8.4823608623e-06 7.2345086464e-06 5.7469211104e-06 3.861263704e-06 1.2993650466e-06 5.7759553849e-07 4.6759478578e-08 0 
0 0 0 0 0 5.632702793e-09 8.1763074667e-08 1.9590432908e-07 1.0741837018e-06 
2.0577751166e-06 4.1994021124e-06 5.045753912e-06 4.7681992672e-06 3.6732295888e-06 1.9861223789e-06 1.0341217986e-06 2.0265654542e-07 1.2299389606e-07 
5.6599406981e-09 0 0 0 0 0 0 0 3.8640843077e-08 
8.7293242085e-08 1.5879429735e-07 5.1672105216e-07 1.2131874165e-06 1.4508761803e-06 1.5446464191e-06 1.131428234e-06 4.8957343603e-07 1.4453872378e-07 
1.0307913868e-07 3.4496915245e-08 0 0 0 0 0 0 0 
0 1.7755015237e-08 6.4322927095e-08 1.520616089e-07 5.8496055945e-08 1.3588211282e-07 1.5045321356e-07 1.4647536859e-07 8.6576369085e-08 
1.1093558624e-07 8.835626659e-08 8.2859803708e-08 8.7087714009e-09 0 0 0 0 0 
0 0 0 7.5242693297e-09 1.240473252e-07 1.7386871409e-07 1.2283857309e-07 2.4456196865e-07 2.3042811613e-07 
2.8818578257e-07 2.5850393719e-07 1.1907420282e-07 1.3111548567e-07 1.3113000151e-07 1.4359570792e-08 0 0 0 
0 0 0 0 0 1.0173842401e-07 1.8373901107e-07 2.7086558096e-07 6.8494684901e-07 
2.104799972e-06 2.4749578192e-06 2.5355449614e-06 2.1482955251e-06 7.3247029771e-07 2.0541718883e-07 1.4401815061e-07 8.2067005912e-08 0 
0 0 0 0 0 0 1.0930398027e-08 1.7143708078e-07 4.0090316543e-07 
1.8023224199e-06 3.5811615456e-06 7.3728542857e-06 8.1287629515e-06 8.2845187943e-06 6.9747295574e-06 3.4192117722e-06 1.8127778367e-06 4.6779943618e-07 
1.5004020874e-07 1.4245902377e-08 0 0 0 0 0 0 8.7307200329e-08 
7.4525020482e-07 2.2084270131e-06 6.5268818859e-06 1.0359105041e-05 1.3439830883e-05 1.4916418892e-05 1.5111891723e-05 1.2284256621e-05 9.2494204143e-06 
6.2487949488e-06 2.1417966626e-06 7.8076734733e-07 7.870561029e-08 0 0 0 0 0 
1.4244762706e-08 4.3391022781e-07 2.9575486574e-06 7.8858771744e-06 1.2293815779e-05 1.6224199133e-05 1.9811351083e-05 2.3432751479e-05 2.3300508733e-05 
2.0004626221e-05 1.4914712123e-05 1.1189028134e-05 6.8447168433e-06 2.9213418991e-06 3.9149705088e-07 1.0142426645e-08 0 0 
0 0 9.1872938467e-08 1.4338795527e-06 6.6461835533e-06 1.2209395524e-05 1.8846582775e-05 2.349149143e-05 2.634668945e-05 
3.1042806261e-05 3.0524543662e-05 2.6474494836e-05 2.1939644973e-05 1.6619767603e-05 1.1800802541e-05 6.1811545674e-06 1.2858496832e-06 1.2638382484e-07 
0 0 0 8.613118198e-09 3.5116050979e-07 3.4544926094e-06 9.8626217716e-06 1.6483241791e-05 2.418685804e-05 
2.9506569593e-05 3.1704374797e-05 3.4313051417e-05 3.5925596166e-05 3.1543040424e-05 2.7278533136e-05 2.3390455645e-05 1.6050182589e-05 9.8099110363e-06 
3.4494583807e-06 3.723782439e-07 6.1715015127e-09 0 0 5.7461953121e-08 8.4147602275e-07 5.2701292923e-06 1.1758267133e-05 
1.9766804792e-05 2.9769999919e-05 3.434085098e-05 3.8177063321e-05 4.0959609341e-05 4.1207316645e-05 3.6029794991e-05 3.2828859079e-05 2.7945506522e-05 
2.0151110413e-05 1.2592102757e-05 5.7388638523e-06 7.3027791094e-07 4.6641993287e-08 0 9.1118536882e-09 1.8434131682e-07 8.5703277218e-07 
5.700590657e-06 1.2737680377e-05 2.2267445682e-05 3.085701934e-05 3.6523811683e-05 4.0850076115e-05 4.5108444433e-05 4.3618342507e-05 3.92102566e-05 
3.5379227478e-05 3.02874652e-05 2.2193072657e-05 1.3451810486e-05 5.3300761976e-06 6.529944368e-07 1.7069728772e-07 1.1876589463e-08 5.1194654827e-08 
1.47340254e-07 1.1139897171e-06 5.8652247712e-06 1.3808493639e-05 2.2528991196e-05 3.039526423e-05 3.8033268171e-05 4.2487057296e-05 4.7091785911e-05 
4.6937239334e-05 4.2369404891e-05 3.8015476386e-05 3.1528000461e-05 2.2793034957e-05 1.4260229414e-05 5.9469791067e-06 8.3433705947e-07 2.0844972054e-07 
1.1214143783e-07 7.1695908359e-08 1.703708173e-07 1.2212746705e-06 5.7800703214e-06 1.4394105102e-05 2.2718227701e-05 3.1002674595e-05 3.899551987e-05 
4.6275974594e-05 4.7599156281e-05 4.7732776144e-05 4.5090718913e-05 3.9169494739e-05 3.072602808e-05 2.2368617172e-05 1.4153633377e-05 6.3356751857e-06 
9.2250740984e-07 2.1062948049e-07 9.6928893567e-08 6.918214443e-09 1.5737770385e-07 7.86163454e-07 5.6468994318e-06 1.3115145713e-05 2.1760243577e-05 
3.0128281207e-05 3.8824604641e-05 4.4308980919e-05 4.485828632e-05 4.4550674714e-05 4.3032475338e-05 3.7728373148e-05 3.0852399775e-05 2.2494848723e-05 
1.341007406e-05 6.1911382194e-06 6.9916541535e-07 1.5521391471e-07 6.0876147795e-09 0 5.0120195601e-08 7.9254488546e-07 5.1254454605e-06 
1.1543428363e-05 2.061956811e-05 2.9026336981e-05 3.4571882171e-05 3.8534090665e-05 4.0678984985e-05 3.9226440841e-05 3.7698365454e-05 3.4349355948e-05 
2.9441059303e-05 2.0398796871e-05 1.2459594772e-05 5.8889821095e-06 8.7455727623e-07 4.0514798253e-08 0 0 4.3144900392e-09 
2.9690385093e-07 2.9826237476e-06 9.1927721809e-06 1.6762949758e-05 2.3049726753e-05 2.8694454355e-05 3.3046343651e-05 3.4546133856e-05 3.4662671676e-05 
3.0801023156e-05 2.7632276745e-05 2.3577790276e-05 1.5919168132e-05 9.5307818958e-06 3.3658572692e-06 3.1809832238e-07 8.8030635537e-09 0 
0 0 9.0705201255e-08 1.2366327449e-06 6.2088611072e-06 1.2195965176e-05 1.7564254213e-05 2.246853714e-05 2.6202274574e-05 
3.103293533e-05 3.0934922773e-05 2.5929763021e-05 2.113823752e-05 1.6128454621e-05 1.1802599367e-05 6.3581238173e-06 1.2742645918e-06 9.4408032162e-08 
0 0 0 0 1.137139749e-08 3.8068247519e-07 2.8038772319e-06 7.3211837154e-06 1.1709004519e-05 
1.6473810273e-05 1.9881424196e-05 2.4339399055e-05 2.3109297432e-05 1.9675391135e-05 1.5256347457e-05 1.0961001605e-05 6.9922011395e-06 3.1430427269e-06 
4.3040494787e-07 1.2460934506e-08 0 0 0 0 0 1.2793764078e-07 7.5593839073e-07 
2.2894442245e-06 5.9032912546e-06 9.8468485028e-06 1.2943384733e-05 1.5140636196e-05 1.4466083929e-05 1.2853622199e-05 9.8738481725e-06 6.0657956006e-06 
2.030595816e-06 8.0213804981e-07 7.9951960083e-08 0 0 0 0 0 0 
1.1478108074e-08 1.4832032597e-07 4.2985572906e-07 1.8138968414e-06 3.5872599011e-06 7.3072248353e-06 8.8541579274e-06 8.6379798191e-06 6.3693484746e-06 
3.4359925169e-06 1.7131643298e-06 3.7699890541e-07 1.3729949906e-07 7.6886848147e-09 0 0 0 0 
0 0 0 9.6569579088e-08 1.9118635004e-07 2.8869150863e-07 8.7836433686e-07 2.3238728464e-06 2.7096420605e-06 
2.5374813888e-06 2.0447744339e-06 7.1173469051e-07 2.4038525901e-07 1.4180764744e-07 7.8424972364e-08 0 0 0 
0 0 0 0 0 1.7271232755e-08 1.2520182216e-07 1.2788036556e-07 1.3086637514e-07 
2.1959907977e-07 2.8698363458e-07 2.1880290549e-07 2.0212408759e-07 1.2408897e-07 1.9407231324e-07 1.5164723862e-07 1.0868916285e-08 0 
0 0 0 0 0 0 0 1.3099861002e-08 1.8836532462e-07 
2.4876247947e-07 1.8497315111e-07 3.5487977594e-07 4.4160974452e-07 3.8260098024e-07 3.8662986883e-07 1.9020396081e-07 2.3328958661e-07 2.1317725482e-07 
1.6839705925e-08 0 0 0 0 0 0 0 0 
1.5741090378e-07 2.6128657065e-07 4.4309366817e-07 1.2558003904e-06 3.1868291835e-06 3.9507690907e-06 4.007071094e-06 3.1651407055e-06 1.2294726697e-06 
4.0928326175e-07 2.4478677155e-07 1.0731884794e-07 0 0 0 0 0 0 
0 1.3402710334e-08 2.3634216938e-07 6.5936481562e-07 2.6669419824e-06 5.6173565536e-06 1.0857584152e-05 1.2559146991e-05 1.2364217307e-05 
1.0292806497e-05 5.0839046358e-06 2.7419089309e-06 6.8485552507e-07 2.9836526653e-07 1.2406622273e-08 0 0 0 
0 0 0 1.4616717258e-07 1.0027886206e-06 3.3323181434e-06 9.9845595573e-06 1.4921170361e-05 1.9551287023e-05 
2.3088882746e-05 2.2611187449e-05 1.9029075914e-05 1.4234807065e-05 9.3302065917e-06 3.4084643052e-06 1.1976564326e-06 1.4014258951e-07 0 
0 0 0 0 2.4639502615e-08 6.6502127147e-07 4.6454659558e-06 1.0740874156e-05 1.8248210286e-05 
2.4221769651e-05 2.9396474024e-05 3.5326013854e-05 3.5096280924e-05 3.0584933454e-05 2.3945704361e-05 1.7002625414e-05 1.0644214165e-05 4.8925376188e-06 
6.3556369857e-07 1.8788355471e-08 0 0 0 0 1.9351695365e-07 2.0787412709e-06 9.6673300249e-06 
1.8263150437e-05 2.7267471515e-05 3.455446399e-05 4.0417579889e-05 4.681249975e-05 4.7624869548e-05 4.0236497514e-05 3.2757147149e-05 2.4789911218e-05 
1.793952795e-05 9.7619901456e-06 2.1026641546e-06 1.7931702774e-07 0 0 0 1.571159448e-08 5.4549643289e-07 
5.2453252566e-06 1.4342029454e-05 2.5705968638e-05 3.6661185062e-05 4.5230712255e-05 5.182256779e-05 5.566325788e-05 5.5517521134e-05 4.9003566612e-05 
4.1171285083e-05 3.355095602e-05 2.4901332173e-05 1.4548255247e-05 5.3428289243e-06 5.7844503436e-07 9.7194871123e-09 0 0 
7.3806150253e-08 1.3838268206e-06 8.8196089684e-06 1.8278229571e-05 3.0310492772e-05 4.4933227424e-05 5.2622647153e-05 5.9001838818e-05 6.4554067872e-05 
6.4016497824e-05 5.6171716825e-05 5.0153257472e-05 4.3991020441e-05 3.053693029e-05 1.9567339687e-05 8.5315447329e-06 1.3037773496e-06 9.5767209607e-08 
0 1.1731206264e-08 2.7786069091e-07 1.2850208792e-06 9.1765879703e-06 1.9951391816e-05 3.2252344018e-05 4.6662229615e-05 5.6218175808e-05 
6.2558605456e-05 6.8399819159e-05 6.8148040211e-05 6.2608687745e-05 5.5574262066e-05 4.5975287462e-05 3.3337952452e-05 2.2031198487e-05 9.3070998324e-06 
1.2531370305e-06 2.7266270485e-07 1.9619852368e-08 1.22309565e-07 2.7949259992e-07 1.6157462504e-06 9.5460640275e-06 2.1401977453e-05 3.5581927741e-05 
4.6473081674e-05 5.8483097691e-05 6.6374891764e-05 7.3153230196e-05 7.1821853372e-05 6.575527799e-05 5.7402724917e-05 4.8174268914e-05 3.5595147875e-05 
2.2109741658e-05 9.4792683969e-06 1.5371924232e-06 3.3825807851e-07 1.1981860688e-07 9.1104126232e-08 2.5288198175e-07 1.6864026423e-06 9.1985219486e-06 
2.1538086199e-05 3.5691250352e-05 4.6943492254e-05 5.9573162876e-05 6.8702237682e-05 7.329489417e-05 7.2274713478e-05 6.6963594246e-05 5.9465531799e-05 